TITLE = "Protein Alpha Shape Analysis"
VARIABLES = "X", "Y", "Z", "Distance", "On_Alpha_Shape", "Atom_Index"
ZONE T="All Points with Alpha Shape Markers"
I=4779, J=1, K=1, ZONETYPE=Ordered
DATAPACKING=POINT
19.206000 29.437000 42.865000 18.678281 1 1
20.110000 30.509000 42.509000 19.989841 1 2
21.574000 30.054000 42.655000 20.386224 1 3
21.994000 29.507000 43.686000 20.341954 1 4
19.814000 31.639000 43.472000 20.977491 1 5
20.401000 32.947000 42.947000 22.313167 1 6
18.302000 31.741000 43.687000 20.470575 1 7
22.335000 30.304000 41.625000 20.908955 0 8
23.767000 29.999000 41.741000 21.532848 0 9
24.466000 31.151000 42.512000 22.938902 0 10
24.394000 32.313000 42.102000 23.773109 1 11
24.356000 29.942000 40.319000 21.789929 0 12
23.838000 28.827000 39.434000 20.608133 0 13
24.511000 28.781000 38.041000 21.100094 1 14
23.961000 27.502000 40.173000 19.705935 1 15
25.097000 30.830000 43.596000 23.233201 1 16
25.917000 31.795000 44.340000 24.606734 1 17
27.177000 32.080000 43.524000 25.503713 0 18
27.480000 31.366000 42.566000 25.067929 0 19
26.324000 31.129000 45.666000 24.647845 1 20
27.293000 30.131000 45.459000 24.543985 1 21
27.921000 33.144000 43.839000 26.825068 0 22
29.160000 33.480000 43.102000 27.801667 1 23
30.189000 32.378000 43.244000 27.753644 1 24
30.922000 32.089000 42.288000 27.991219 1 25
29.757000 34.739000 43.736000 29.200633 1 26
28.637000 35.287000 44.598000 29.010279 1 27
27.574000 34.193000 44.794000 27.544552 1 28
30.178000 31.768000 44.449000 27.500820 1 29
31.077000 30.658000 44.691000 27.479705 1 30
30.672000 29.489000 43.756000 26.290112 0 31
31.563000 28.854000 43.176000 26.530597 1 32
31.057000 30.260000 46.195000 27.516835 1 33
29.334000 29.236000 43.597000 25.084547 0 34
28.956000 28.212000 42.606000 24.022299 0 35
29.515000 28.538000 41.226000 24.547506 0 36
30.011000 27.597000 40.571000 24.345481 0 37
27.474000 28.020000 42.459000 22.751798 0 38
26.835000 27.416000 43.695000 22.055830 0 39
27.429000 26.523000 44.312000 22.066368 1 40
25.744000 27.888000 44.010000 21.627152 0 41
29.414000 29.820000 40.855000 25.273049 0 42
29.902000 30.162000 39.484000 25.853052 1 43
31.402000 29.955000 39.303000 26.879942 1 44
31.851000 29.469000 38.247000 26.983245 1 45
29.496000 31.578000 39.153000 26.513407 1 46
28.000000 31.747000 39.328000 25.571216 0 47
27.619000 33.202000 39.102000 26.397631 1 48
26.300000 33.501000 39.770000 25.775259 1 49
26.058000 34.929000 39.589000 26.770417 1 50
32.135000 30.260000 40.395000 27.640962 1 51
33.588000 30.031000 40.367000 28.665056 1 52
33.915000 28.549000 40.206000 28.095408 0 53
34.799000 28.190000 39.419000 28.655574 1 54
34.180000 30.597000 41.674000 29.524508 1 55
34.016000 31.993000 41.653000 30.235748 1 56
35.646000 30.294000 41.784000 30.556463 1 57
33.167000 27.706000 40.948000 27.028368 0 58
33.319000 26.260000 40.908000 26.414263 1 59
33.010000 25.639000 39.516000 25.827869 0 60
33.700000 24.749000 39.048000 26.042075 1 61
32.455000 25.601000 41.999000 25.404169 0 62
32.988000 25.894000 43.416000 26.160966 0 63
34.125000 26.330000 43.623000 27.383680 1 64
32.149000 25.662000 44.397000 25.477249 1 65
31.935000 26.073000 38.908000 25.126273 0 66
31.553000 25.572000 37.597000 24.633422 0 67
32.604000 26.013000 36.551000 25.875228 0 68
33.018000 25.217000 35.693000 25.980668 0 69
30.159000 26.101000 37.286000 23.759051 1 70
29.753000 25.723000 35.877000 23.419137 1 71
29.112000 25.624000 38.253000 22.536369 1 72
33.007000 27.277000 36.640000 26.849245 0 73
34.051000 27.790000 35.683000 28.127513 1 74
35.371000 27.030000 35.828000 28.857359 0 75
36.052000 26.717000 34.833000 29.460686 1 76
34.293000 29.255000 35.882000 29.082071 1 77
33.101000 29.950000 35.344000 28.591566 1 78
33.130000 31.438000 35.596000 29.469379 1 79
31.900000 32.062000 34.918000 29.040322 1 80
31.864000 33.514000 35.156000 29.936271 1 81
35.650000 26.659000 37.051000 28.777630 0 82
36.924000 26.041000 37.197000 29.618199 1 83
36.852000 24.599000 36.718000 29.008196 1 84
37.757000 24.073000 36.062000 29.719721 1 85
37.263000 26.045000 38.686000 29.825046 1 86
35.755000 23.956000 37.017000 27.722202 1 87
35.702000 22.564000 36.590000 27.214938 1 88
35.576000 22.426000 35.042000 27.285257 1 89
36.096000 21.494000 34.396000 27.595428 1 90
34.457000 21.981000 37.272000 25.777111 1 91
34.797000 23.355000 34.486000 27.008158 1 92
34.494000 23.179000 33.070000 26.993188 0 93
35.743000 23.612000 32.284000 28.472804 1 94
36.058000 23.115000 31.188000 28.891619 1 95
33.234000 24.014000 32.771000 26.283788 1 96
32.672000 23.660000 31.417000 26.060977 0 97
32.829000 24.352000 30.196000 26.895761 1 98
31.885000 22.532000 31.133000 25.047470 0 99
32.135000 23.653000 29.182000 26.427584 1 100
31.582000 22.555000 29.738000 25.324894 0 101
31.432000 21.507000 31.932000 24.014029 1 102
30.855000 21.583000 29.091000 24.647241 0 103
30.688000 20.517000 31.278000 23.267871 1 104
30.419000 20.552000 29.898000 23.597323 1 105
36.458000 24.519000 32.935000 29.284746 1 106
37.754000 24.962000 32.401000 30.739067 1 107
38.638000 23.733000 32.185000 31.147432 1 108
39.218000 23.594000 31.097000 31.913502 1 109
38.710000 22.879000 33.192000 30.699813 1 110
39.477000 21.620000 33.123000 31.062229 1 111
38.953000 20.715000 32.007000 30.606230 0 112
39.734000 19.947000 31.436000 31.313652 1 113
39.468000 20.820000 34.448000 30.582602 1 114
40.463000 19.645000 34.380000 31.282403 0 115
41.950000 20.069000 34.354000 32.806228 1 116
42.881000 18.897000 33.999000 33.547722 1 117
42.533000 17.719000 34.792000 32.897369 1 118
37.642000 20.820000 31.734000 29.486267 0 119
37.006000 19.878000 30.836000 28.936138 0 120
37.600000 20.246000 29.485000 30.012421 0 121
38.063000 19.358000 28.777000 30.493741 1 122
35.485000 19.934000 30.877000 27.541264 0 123
34.900000 19.479000 29.562000 27.370381 1 124
34.846000 19.252000 32.113000 26.406329 1 125
37.650000 21.563000 29.279000 30.462582 0 126
38.289000 22.159000 28.106000 31.621258 1 127
37.803000 21.492000 26.823000 31.520652 1 128
36.628000 21.623000 26.439000 30.705164 1 129
38.739000 20.759000 26.258000 32.394788 1 130
38.650000 20.377000 24.848000 32.853466 1 131
38.013000 19.001000 24.711000 32.095911 1 132
37.662000 18.553000 23.611000 32.258457 1 133
40.059000 20.414000 24.212000 34.368801 1 134
37.809000 18.364000 25.837000 31.288479 0 135
37.173000 17.055000 25.868000 30.527196 0 136
35.657000 17.219000 25.966000 29.178776 0 137
34.969000 16.219000 26.174000 28.361140 0 138
37.590000 16.340000 27.127000 30.260451 0 139
39.072000 15.991000 27.099000 31.580412 0 140
39.628000 15.072000 26.182000 32.400201 1 141
40.057000 16.484000 27.893000 32.218995 1 142
41.000000 15.006000 26.441000 33.536634 1 143
41.266000 15.873000 27.495000 33.429532 1 144
35.203000 18.450000 25.825000 29.049265 1 145
33.801000 18.690000 26.190000 27.722122 1 146
32.897000 17.798000 25.318000 27.253713 0 147
31.965000 17.161000 25.809000 26.117188 1 148
33.446000 20.188000 26.178000 27.764123 1 149
33.221000 17.698000 24.064000 28.192509 1 150
32.382000 16.920000 23.189000 27.917300 1 151
32.468000 15.423000 23.424000 27.688019 0 152
31.495000 14.715000 23.202000 27.006313 0 153
33.618000 14.937000 23.802000 28.365705 0 154
33.797000 13.497000 24.042000 28.328781 1 155
33.021000 13.164000 25.348000 26.960528 0 156
32.440000 12.088000 25.494000 26.419277 0 157
35.320000 13.384000 24.167000 29.534121 1 158
35.962000 12.022000 24.285000 30.042261 1 159
37.432000 12.325000 24.655000 31.111122 1 160
37.792000 12.028000 25.816000 30.887504 1 161
38.158000 12.927000 23.831000 32.138120 1 162
33.066000 14.083000 26.280000 26.519153 0 163
32.380000 13.899000 27.548000 25.283844 0 164
30.877000 13.954000 27.309000 24.111347 0 165
30.154000 13.193000 27.957000 23.146630 1 166
32.722000 14.947000 28.631000 25.124625 1 167
34.167000 14.785000 29.166000 26.185161 0 168
34.680000 15.618000 30.129000 26.339894 1 169
34.948000 13.768000 28.665000 27.063689 0 170
35.997000 15.456000 30.565000 27.395496 0 171
36.257000 13.598000 29.086000 28.090929 0 172
36.778000 14.464000 30.032000 28.250280 0 173
38.128000 14.445000 30.285000 29.432429 1 174
30.437000 14.911000 26.471000 24.240533 1 175
29.011000 14.985000 26.060000 23.320201 1 176
28.521000 13.657000 25.465000 23.234006 0 177
27.420000 13.190000 25.765000 22.187056 1 178
29.272000 13.035000 24.569000 24.378285 0 179
28.830000 11.769000 24.043000 24.420718 0 180
28.785000 10.609000 25.050000 23.843443 0 181
27.918000 9.733000 25.036000 23.304792 1 182
29.781000 11.336000 22.978000 25.862894 1 183
29.786000 10.603000 25.915000 24.113255 0 184
29.823000 9.566000 26.932000 23.706135 0 185
28.614000 9.715000 27.865000 22.178377 0 186
28.008000 8.704000 28.213000 21.679720 0 187
31.167000 9.716000 27.687000 24.412795 0 188
31.231000 8.715000 28.822000 24.087846 0 189
32.530000 8.804000 29.655000 24.850400 1 190
32.443000 8.537000 30.850000 24.351488 0 191
33.601000 9.083000 29.103000 25.989450 1 192
28.253000 10.934000 28.267000 21.497294 0 193
27.088000 11.108000 29.153000 20.027550 0 194
25.821000 10.619000 28.444000 19.453077 0 195
24.917000 10.046000 29.059000 18.462328 0 196
26.909000 12.581000 29.488000 19.592673 1 197
25.730000 10.921000 27.117000 20.158724 0 198
24.537000 10.376000 26.375000 19.837149 0 199
24.494000 8.852000 26.410000 20.061039 0 200
23.436000 8.263000 26.664000 19.296630 0 201
24.533000 10.847000 24.877000 20.827418 0 202
24.384000 12.349000 24.750000 20.698758 1 203
24.693000 12.740000 23.317000 21.959711 1 204
22.932000 12.670000 25.093000 19.468138 1 205
25.631000 8.213000 26.099000 21.223836 0 206
25.649000 6.748000 26.119000 21.618726 0 207
25.343000 6.185000 27.517000 20.713889 0 208
24.677000 5.157000 27.618000 20.557993 0 209
26.991000 6.286000 25.624000 23.030144 0 210
27.142000 4.805000 25.766000 23.542067 1 211
28.425000 4.363000 25.035000 25.057617 0 212
29.332000 5.191000 24.834000 25.563414 1 213
28.498000 3.168000 24.724000 25.740531 1 214
25.823000 6.881000 28.564000 20.234214 0 215
25.477000 6.460000 29.931000 19.368960 0 216
23.967000 6.524000 30.171000 18.059280 0 217
23.417000 5.570000 30.763000 17.720101 0 218
26.212000 7.241000 30.986000 19.181598 0 219
27.709000 6.912000 31.003000 20.528815 0 220
28.434000 7.812000 31.999000 20.487066 0 221
29.917000 7.541000 32.134000 21.827970 0 222
30.433000 6.503000 32.765000 22.369936 0 223
29.678000 5.610000 33.415000 21.785630 0 224
31.750000 6.331000 32.660000 23.641508 0 225
23.390000 7.625000 29.685000 17.517761 0 226
21.954000 7.806000 29.819000 16.332286 0 227
21.161000 6.717000 29.077000 16.660884 0 228
20.221000 6.121000 29.623000 15.960261 0 229
21.566000 9.196000 29.326000 15.965248 0 230
20.080000 9.521000 29.480000 14.764188 0 231
19.647000 11.131000 28.804000 14.659529 0 232
19.880000 10.730000 27.082000 16.200557 0 233
21.486000 6.449000 27.841000 17.795132 0 234
20.717000 5.424000 27.059000 18.293728 0 235
20.826000 4.050000 27.657000 18.582200 0 236
19.881000 3.287000 27.551000 18.537328 1 237
21.219000 5.296000 25.653000 19.634945 1 238
21.045000 6.584000 24.844000 19.664643 0 239
19.909000 7.342000 24.937000 18.744279 0 240
22.069000 6.991000 24.000000 20.750334 0 241
19.770000 8.513000 24.193000 18.950026 0 242
21.932000 8.179000 23.249000 20.938257 1 243
20.788000 8.932000 23.346000 20.072615 1 244
21.975000 3.743000 28.328000 18.984576 0 245
22.098000 2.400000 28.917000 19.424629 1 246
21.443000 2.351000 30.305000 18.296365 0 247
20.895000 1.315000 30.669000 18.430572 1 248
23.543000 2.052000 29.125000 20.408248 1 249
24.279000 1.824000 27.828000 21.710545 1 250
25.776000 1.499000 28.005000 22.772315 1 251
23.564000 0.744000 27.075000 22.284486 1 252
21.519000 3.434000 31.094000 17.303976 0 253
21.077000 3.329000 32.471000 16.412394 0 254
19.584000 3.584000 32.583000 15.261154 0 255
18.911000 3.096000 33.502000 14.762509 1 256
21.733000 4.414000 33.333000 15.855062 0 257
23.065000 4.042000 33.567000 16.946000 0 258
19.130000 4.419000 31.641000 14.966943 0 259
17.727000 4.889000 31.578000 13.939161 0 260
17.171000 4.716000 30.171000 14.657022 0 261
16.993000 5.718000 29.424000 14.541975 0 262
17.587000 6.359000 32.034000 12.743727 0 263
18.303000 6.627000 33.368000 12.261856 0 264
19.501000 7.310000 33.382000 12.730905 0 265
17.733000 6.152000 34.548000 11.576878 1 266
20.166000 7.501000 34.590000 12.573032 0 267
18.397000 6.345000 35.769000 11.397380 1 268
19.605000 7.005000 35.784000 11.916127 1 269
16.843000 3.513000 29.855000 15.450722 0 270
16.412000 3.173000 28.471000 16.427798 0 271
15.195000 3.925000 27.984000 15.918553 0 272
15.015000 4.094000 26.765000 16.708917 0 273
16.236000 1.676000 28.410000 17.366622 1 274
16.294000 1.205000 29.840000 16.807614 1 275
16.952000 2.332000 30.657000 15.780754 1 276
14.399000 4.442000 28.905000 14.689116 1 277
13.219000 5.183000 28.409000 14.362427 0 278
13.631000 6.424000 27.620000 14.461360 0 279
12.868000 6.927000 26.798000 14.798906 0 280
12.313000 5.575000 29.613000 13.015981 0 281
13.011000 6.284000 30.585000 11.963866 1 282
11.793000 4.252000 30.185000 13.350407 1 283
14.822000 6.928000 27.882000 14.330094 0 284
15.255000 8.141000 27.167000 14.604203 0 285
15.487000 7.874000 25.663000 16.096182 0 286
15.500000 8.802000 24.870000 16.533601 0 287
16.529000 8.677000 27.809000 14.360683 0 288
17.640000 7.760000 27.764000 15.216052 0 289
16.314000 9.072000 29.267000 12.919751 0 290
15.602000 6.641000 25.303000 16.896137 0 291
15.849000 6.309000 23.915000 18.308085 0 292
14.588000 6.586000 23.068000 18.627639 0 293
14.661000 6.626000 21.851000 19.738777 0 294
16.176000 4.801000 23.769000 19.152401 0 295
17.540000 4.298000 24.227000 19.461032 0 296
17.434000 2.843000 23.860000 20.422214 1 297
17.865000 1.913000 24.881000 20.293044 1 298
17.725000 0.558000 24.357000 21.409087 1 299
13.437000 6.751000 23.703000 17.758409 0 300
12.212000 7.046000 22.971000 18.161634 0 301
12.302000 8.402000 22.269000 18.425496 0 302
11.477000 8.717000 21.391000 19.125685 0 303
10.997000 7.028000 23.910000 17.205745 0 304
11.133000 8.047000 24.886000 15.945187 0 305
10.746000 5.682000 24.565000 17.140186 0 306
13.249000 9.267000 22.649000 17.976793 0 307
13.341000 10.556000 21.936000 18.445764 0 308
14.327000 10.496000 20.736000 19.801204 0 309
14.402000 11.472000 19.989000 20.432795 0 310
13.819000 11.595000 22.902000 17.463181 0 311
12.721000 11.868000 23.939000 16.231491 0 312
11.684000 12.732000 23.678000 16.321253 0 313
12.775000 11.211000 25.162000 15.110993 0 314
10.700000 12.945000 24.616000 15.327264 0 315
11.779000 11.438000 26.106000 14.022169 0 316
10.742000 12.302000 25.830000 14.143751 0 317
9.773000 12.522000 26.769000 13.200041 0 318
15.069000 9.369000 20.624000 20.256997 0 319
16.057000 9.218000 19.553000 21.549017 0 320
15.789000 7.991000 18.691000 22.553694 0 321
16.724000 7.265000 18.342000 23.298913 0 322
17.425000 9.127000 20.196000 21.372748 0 323
17.844000 10.390000 20.995000 20.570866 0 324
17.491000 10.504000 22.327000 19.200731 0 325
18.547000 11.403000 20.410000 21.258355 1 326
17.858000 11.623000 23.054000 18.548982 0 327
18.930000 12.549000 21.127000 20.686363 1 328
18.574000 12.645000 22.474000 19.312134 0 329
14.571000 7.757000 18.263000 22.754927 0 330
14.296000 6.570000 17.420000 23.817088 1 331
14.939000 6.730000 16.000000 25.230778 1 332
15.161000 5.794000 15.249000 26.235234 1 333
12.805000 6.543000 17.308000 23.730208 1 334
12.435000 8.029000 17.337000 23.289243 1 335
13.379000 8.615000 18.369000 22.267871 0 336
15.314000 7.894000 15.638000 25.373217 1 337
15.922000 8.158000 14.318000 26.708355 1 338
17.450000 8.129000 14.320000 27.072091 1 339
18.038000 8.452000 13.288000 28.148262 1 340
15.495000 9.570000 13.875000 26.818854 1 341
15.809000 10.732000 14.839000 25.807951 1 342
15.413000 10.710000 16.196000 24.407413 1 343
16.498000 11.909000 14.601000 26.105512 1 344
15.844000 11.897000 16.789000 23.829293 1 345
16.524000 12.652000 15.790000 24.930630 1 346
18.081000 7.782000 15.494000 26.213899 0 347
19.527000 7.728000 15.621000 26.571115 0 348
20.012000 6.292000 15.616000 27.080304 1 349
19.354000 5.362000 16.118000 26.659146 1 350
19.983000 8.306000 16.971000 25.391319 0 351
20.277000 9.800000 16.937000 25.287872 0 352
21.120000 10.348000 17.875000 24.721924 1 353
19.720000 10.615000 15.994000 25.846151 0 354
21.397000 11.694000 17.885000 24.713587 1 355
19.992000 11.991000 15.990000 25.845967 1 356
20.832000 12.544000 16.939000 25.283971 0 357
21.213000 6.163000 15.060000 28.056437 1 358
21.942000 4.914000 15.347000 28.436179 1 359
22.533000 5.105000 16.756000 27.426494 0 360
23.423000 5.937000 16.930000 27.455178 0 361
23.088000 4.830000 14.344000 29.803396 1 362
23.921000 3.581000 14.559000 30.361309 1 363
23.529000 2.634000 15.247000 29.934871 1 364
24.995000 3.574000 13.964000 31.349719 1 365
22.007000 4.385000 17.674000 26.649769 1 366
22.495000 4.518000 19.012000 25.723573 0 367
23.555000 3.482000 19.350000 26.338634 1 368
23.746000 3.203000 20.542000 25.625771 1 369
21.356000 4.442000 20.054000 24.375055 1 370
20.326000 5.563000 19.919000 23.651884 1 371
19.153000 5.323000 20.893000 22.429564 1 372
20.876000 6.942000 20.032000 23.385128 0 373
24.257000 2.957000 18.352000 27.665542 1 374
25.304000 2.020000 18.753000 28.260057 1 375
26.532000 2.802000 19.216000 28.293250 0 376
26.703000 4.006000 18.940000 28.175581 0 377
25.559000 0.965000 17.684000 29.623898 1 378
25.833000 1.600000 16.479000 30.427943 1 379
27.358000 2.102000 20.002000 28.479754 1 380
28.482000 2.780000 20.621000 28.489258 0 381
29.378000 3.415000 19.573000 29.557033 0 382
29.779000 2.727000 18.619000 30.705334 1 383
29.307000 1.705000 21.356000 28.949334 1 384
30.590000 2.288000 21.956000 29.211194 1 385
30.575000 3.334000 22.868000 28.264342 1 386
31.897000 1.928000 21.736000 30.395717 1 387
31.869000 3.649000 23.215000 28.896677 1 388
32.688000 2.777000 22.512000 30.206914 1 389
29.641000 4.663000 19.728000 29.230192 0 390
30.605000 5.370000 18.896000 30.252243 1 391
29.995000 5.912000 17.602000 30.638689 1 392
30.720000 6.416000 16.736000 31.623202 1 393
28.688000 5.802000 17.481000 29.935402 1 394
28.085000 6.318000 16.235000 30.404919 1 395
28.332000 7.803000 16.060000 30.384354 0 396
28.380000 8.611000 16.997000 29.545110 0 397
26.597000 6.055000 16.200000 29.652446 0 398
25.898000 7.082000 16.835000 28.523041 0 399
28.491000 8.172000 14.805000 31.409700 1 400
28.690000 9.585000 14.477000 31.591990 1 401
27.527000 10.481000 14.963000 30.437789 1 402
27.772000 11.626000 15.344000 30.182937 1 403
28.757000 9.700000 12.937000 32.870514 1 404
26.290000 9.919000 14.966000 29.812308 1 405
25.146000 10.753000 15.342000 28.811492 1 406
25.259000 11.104000 16.827000 27.585982 0 407
24.922000 12.250000 17.160000 27.058317 0 408
23.843000 9.954000 15.165000 28.400919 0 409
23.292000 10.128000 13.749000 29.378271 1 410
22.368000 8.997000 13.303000 29.528427 1 411
22.653000 7.819000 13.529000 29.636026 1 412
21.379000 9.359000 12.492000 29.833467 1 413
25.642000 10.090000 17.632000 27.228449 0 414
25.795000 10.344000 19.096000 26.103354 1 415
26.977000 11.264000 19.408000 26.493028 0 416
26.875000 12.210000 20.192000 25.769213 0 417
25.900000 8.996000 19.825000 25.776986 0 418
26.306000 9.164000 21.291000 24.880238 1 419
24.578000 8.296000 19.706000 25.225700 1 420
28.106000 11.000000 18.767000 27.722766 0 421
29.240000 11.896000 18.938000 28.278304 0 422
28.897000 13.314000 18.545000 28.313153 1 423
29.275000 14.261000 19.250000 28.056079 1 424
30.471000 11.397000 18.196000 29.681756 1 425
31.004000 10.077000 18.737000 29.768442 1 426
32.355000 9.815000 18.003000 31.260041 1 427
33.170000 8.576000 18.446000 31.694627 1 428
34.412000 8.509000 17.627000 33.155452 1 429
28.209000 13.435000 17.404000 28.752916 1 430
27.805000 14.758000 16.918000 28.927922 1 431
26.872000 15.459000 17.915000 27.619104 0 432
27.089000 16.634000 18.259000 27.596377 1 433
25.894000 14.697000 18.397000 26.602211 0 434
24.959000 15.318000 19.351000 25.327278 0 435
25.646000 15.668000 20.709000 24.688446 0 436
25.378000 16.735000 21.283000 24.206099 0 437
23.786000 14.370000 19.494000 24.488602 1 438
22.659000 15.033000 20.304000 23.240710 0 439
22.105000 16.252000 19.971000 23.362421 0 440
22.047000 14.573000 21.420000 21.941737 1 441
21.153000 16.525000 20.935000 22.101393 0 442
21.120000 15.495000 21.810000 21.203749 0 443
26.530000 14.808000 21.131000 24.857345 0 444
27.369000 15.049000 22.368000 24.526661 0 445
28.095000 16.385000 22.312000 25.206073 0 446
28.110000 17.190000 23.269000 24.672832 0 447
28.672000 16.663000 21.134000 26.474252 0 448
29.404000 17.944000 20.914000 27.330203 0 449
28.453000 19.112000 20.963000 26.871088 0 450
28.802000 20.155000 21.505000 26.978616 0 451
30.071000 17.934000 19.530000 28.762477 1 452
31.041000 19.067000 19.262000 29.822435 1 453
31.626000 18.824000 17.852000 31.168156 1 454
32.793000 19.737000 17.398000 32.461331 1 455
33.407000 19.155000 16.124000 33.667810 0 456
27.268000 18.913000 20.407000 26.451228 1 457
26.287000 20.011000 20.435000 26.076237 1 458
25.823000 20.285000 21.851000 24.818329 0 459
25.681000 21.467000 22.184000 24.852685 0 460
25.030000 19.712000 19.632000 25.874573 0 461
25.231000 19.885000 18.125000 27.224390 1 462
23.976000 19.362000 17.453000 26.990585 1 463
24.023000 19.465000 15.943000 28.305873 1 464
22.941000 18.623000 15.396000 28.099840 1 465
25.656000 19.203000 22.591000 23.886174 0 466
25.221000 19.385000 24.007000 22.638522 0 467
26.286000 20.154000 24.830000 23.017217 0 468
26.020000 21.160000 25.506000 22.722447 0 469
24.868000 18.015000 24.570000 21.670026 0 470
24.656000 18.054000 26.090000 20.480452 1 471
23.538000 17.634000 23.935000 21.193707 0 472
27.481000 19.674000 24.636000 23.849904 1 473
28.666000 20.251000 25.288000 24.475299 1 474
28.894000 21.701000 24.892000 25.329680 0 475
29.181000 22.531000 25.756000 25.333359 0 476
29.846000 19.330000 24.922000 25.347213 1 477
28.716000 22.082000 23.623000 26.103544 0 478
28.882000 23.506000 23.306000 26.928225 1 479
27.844000 24.399000 23.952000 26.187153 1 480
28.172000 25.493000 24.405000 26.620560 1 481
28.825000 23.730000 21.801000 27.928189 1 482
30.133000 23.227000 21.157000 29.043379 1 483
31.073000 22.860000 21.895000 29.107370 1 484
30.160000 23.165000 19.922000 29.854044 1 485
26.601000 23.922000 24.002000 25.136001 1 486
25.566000 24.646000 24.702000 24.359769 1 487
25.921000 24.793000 26.194000 23.758512 0 488
25.692000 25.859000 26.769000 23.825378 1 489
24.234000 23.896000 24.518000 23.318436 1 490
26.473000 23.758000 26.788000 23.306214 0 491
26.853000 23.910000 28.196000 22.885631 0 492
27.994000 24.911000 28.321000 24.127382 0 493
28.019000 25.780000 29.214000 24.167723 0 494
27.236000 22.590000 28.817000 22.270166 1 495
26.016000 21.668000 29.025000 20.863790 0 496
26.375000 20.239000 29.375000 20.424491 1 497
24.886000 22.225000 29.890000 19.817154 1 498
28.903000 24.802000 27.409000 25.189785 0 499
29.987000 25.794000 27.422000 26.447942 0 500
29.466000 27.236000 27.271000 26.857850 0 501
29.889000 28.173000 27.986000 27.334487 1 502
30.960000 25.474000 26.293000 27.572929 1 503
31.568000 24.232000 26.507000 27.406170 1 504
31.999000 26.571000 26.115000 28.932273 1 505
28.521000 27.421000 26.364000 26.741520 1 506
27.862000 28.739000 26.242000 27.092351 1 507
27.208000 29.156000 27.569000 26.268219 0 508
27.294000 30.330000 27.932000 26.884801 0 509
26.790000 28.663000 25.150000 26.950845 1 510
26.054000 29.998000 24.916000 27.433238 1 511
26.601000 31.068000 25.091000 28.316271 1 512
24.836000 29.938000 24.404000 27.008226 1 513
26.586000 28.207000 28.309000 24.947916 0 514
25.901000 28.644000 29.513000 24.234941 0 515
26.918000 28.973000 30.604000 24.671476 0 516
26.630000 29.875000 31.384000 24.787879 0 517
25.060000 27.488000 29.983000 22.760961 1 518
28.036000 28.224000 30.692000 24.947202 0 519
29.079000 28.592000 31.697000 25.572033 1 520
29.651000 29.976000 31.387000 26.930562 0 521
29.871000 30.744000 32.317000 27.295291 1 522
30.139000 27.526000 31.690000 25.754917 0 523
31.412000 27.865000 32.464000 26.701082 1 524
29.582000 26.191000 32.212000 24.432002 1 525
29.821000 30.298000 30.091000 27.686776 1 526
30.311000 31.605000 29.675000 28.991419 1 527
29.355000 32.700000 30.092000 28.917959 0 528
29.818000 33.807000 30.369000 29.882463 1 529
30.486000 31.688000 28.173000 29.726304 1 530
28.070000 32.405000 30.109000 27.880689 0 531
27.091000 33.437000 30.376000 27.910670 0 532
26.251000 33.071000 31.578000 26.747091 0 533
25.030000 33.218000 31.501000 26.176399 0 534
26.122000 33.562000 29.193000 27.867128 0 535
26.937000 33.956000 27.965000 29.103297 0 536
27.197000 35.294000 27.644000 30.342526 1 537
27.538000 33.170000 27.008000 29.312246 0 538
27.973000 35.307000 26.485000 31.270268 1 539
28.200000 34.008000 26.069000 30.686230 1 540
26.902000 32.625000 32.624000 26.507893 0 541
26.198000 32.051000 33.745000 25.353751 0 542
25.304000 33.090000 34.384000 25.453987 0 543
24.265000 32.728000 34.931000 24.452059 1 544
27.256000 31.380000 34.629000 25.348219 0 545
28.132000 32.324000 35.438000 26.459396 1 546
26.732000 30.220000 35.461000 24.005115 1 547
25.642000 34.364000 34.226000 26.684651 0 548
24.860000 35.443000 34.834000 26.998249 1 549
23.625000 35.809000 34.009000 26.833955 0 550
22.795000 36.604000 34.460000 27.019624 1 551
25.769000 36.687000 34.985000 28.484135 1 552
26.820000 36.419000 36.081000 28.683197 1 553
26.378000 36.080000 37.176000 28.027248 1 554
28.042000 36.510000 35.847000 29.505233 1 555
23.494000 35.236000 32.851000 26.573481 0 556
22.455000 35.574000 31.859000 26.644450 1 557
21.981000 34.356000 31.042000 25.683756 0 558
21.793000 34.390000 29.813000 26.079204 0 559
23.195000 36.483000 30.884000 28.044508 1 560
22.176000 37.273000 30.099000 28.521972 1 561
21.248000 37.813000 30.728000 28.401814 1 562
22.311000 37.299000 28.866000 29.047249 1 563
21.806000 33.281000 31.705000 24.495919 0 564
21.494000 32.013000 31.000000 23.578036 0 565
20.164000 32.047000 30.236000 23.314371 0 566
20.118000 31.558000 29.112000 23.400623 0 567
21.407000 30.900000 32.033000 22.272891 0 568
22.773000 30.357000 32.339000 22.462185 0 569
22.597000 28.682000 33.004000 20.882071 0 570
22.700000 29.050000 34.735000 20.714284 1 571
19.089000 32.563000 30.812000 23.074407 0 572
17.870000 32.795000 30.041000 23.157737 0 573
18.134000 33.385000 28.651000 24.355021 1 574
17.631000 32.787000 27.686000 24.178127 1 575
16.924000 33.629000 30.910000 23.233374 1 576
17.747000 34.037000 32.122000 23.402383 1 577
18.874000 33.036000 32.199000 22.887075 1 578
18.911000 34.461000 28.536000 25.552984 1 579
19.094000 35.087000 27.218000 26.736704 1 580
20.022000 34.211000 26.413000 26.750461 1 581
19.815000 34.006000 25.215000 27.146121 1 582
19.702000 36.480000 27.249000 28.068332 1 583
18.630000 37.462000 27.653000 28.379843 1 584
18.439000 37.726000 28.853000 28.055298 1 585
17.882000 37.905000 26.657000 28.994634 1 586
20.968000 33.645000 27.109000 26.325722 1 587
21.970000 32.911000 26.353000 26.568825 1 588
21.430000 31.626000 25.671000 25.763767 0 589
21.839000 31.301000 24.560000 26.345776 1 590
23.117000 32.598000 27.305000 26.395377 1 591
20.530000 30.927000 26.325000 24.519590 0 592
19.944000 29.642000 25.856000 23.639868 0 593
18.550000 29.853000 25.197000 23.664010 0 594
17.807000 28.884000 25.013000 22.860021 0 595
19.795000 28.681000 27.056000 22.205461 0 596
21.127000 28.255000 27.663000 22.176420 0 597
20.938000 27.377000 28.907000 20.813429 1 598
21.966000 27.538000 26.596000 22.735834 1 599
18.191000 31.093000 24.849000 24.643547 0 600
16.810000 31.382000 24.453000 24.699181 0 601
16.395000 30.504000 23.259000 24.742646 0 602
15.281000 29.938000 23.195000 24.143351 0 603
16.805000 32.885000 24.099000 26.034969 1 604
15.453000 33.264000 23.963000 26.106277 1 605
17.342000 30.335000 22.332000 25.505390 1 606
17.064000 29.598000 21.121000 25.810566 1 607
16.797000 28.146000 21.497000 24.562421 1 608
15.874000 27.531000 20.947000 24.390748 1 609
18.207000 29.720000 20.117000 26.937612 1 610
17.602000 27.635000 22.414000 23.799359 0 611
17.466000 26.204000 22.777000 22.644190 0 612
16.220000 25.963000 23.618000 21.499703 0 613
15.586000 24.917000 23.447000 20.864178 0 614
18.661000 25.818000 23.633000 22.197020 0 615
19.511000 24.693000 23.096000 22.323968 0 616
19.433000 24.627000 21.583000 23.423879 1 617
20.961000 24.818000 23.618000 22.640676 1 618
15.854000 26.904000 24.486000 21.337746 0 619
14.596000 26.718000 25.190000 20.413940 0 620
13.409000 26.740000 24.229000 20.926354 0 621
12.479000 26.015000 24.567000 20.088646 0 622
14.256000 27.726000 26.324000 20.247333 0 623
15.017000 28.862000 26.111000 21.365690 0 624
13.446000 27.569000 23.159000 22.269773 0 625
12.279000 27.553000 22.226000 22.842800 0 626
12.230000 26.197000 21.525000 22.582991 1 627
11.160000 25.628000 21.415000 22.288304 1 628
12.366000 28.643000 21.147000 24.369577 1 629
12.088000 30.050000 21.693000 24.857440 1 630
11.241000 30.145000 22.573000 24.239004 1 631
12.647000 31.041000 21.183000 25.947767 1 632
13.396000 25.672000 21.129000 22.741251 1 633
13.479000 24.421000 20.394000 22.723618 1 634
12.960000 23.249000 21.227000 21.371031 0 635
12.212000 22.382000 20.745000 21.332234 0 636
14.942000 24.229000 19.985000 23.228550 1 637
15.171000 22.913000 19.307000 23.282714 0 638
14.445000 22.851000 17.984000 24.305360 1 639
16.645000 22.571000 19.086000 23.688663 1 640
13.364000 23.231000 22.513000 20.301945 0 641
12.867000 22.109000 23.301000 19.011954 0 642
11.369000 22.285000 23.634000 18.663650 0 643
10.645000 21.288000 23.717000 18.101602 0 644
13.701000 21.961000 24.594000 17.955664 0 645
15.070000 21.321000 24.285000 18.229181 0 646
16.104000 22.099000 23.787000 19.290627 0 647
15.540000 20.004000 24.403000 17.713624 0 648
17.165000 21.264000 23.605000 19.424404 0 649
16.853000 19.969000 23.975000 18.496975 0 650
10.952000 23.548000 23.856000 19.101555 0 651
9.530000 23.735000 24.233000 18.896476 0 652
8.579000 23.519000 23.039000 19.848974 0 653
7.502000 22.969000 23.232000 19.531525 0 654